# Residuals     
# Time          	p               	Ux              	Uz              	e               	k               	omega           
0               	N/A	N/A	N/A	N/A	N/A
2e-05           	1.00000000e+00	9.99999996e-01	1.00000000e+00	9.99999994e-01	1.00000000e+00	2.10992833e-04
4e-05           	4.21933861e-02	1.04606303e-02	3.61172044e-01	1.75351101e-01	2.17112824e-02	2.94088860e-04
6e-05           	1.68256321e-02	6.12193867e-03	2.15390104e-01	2.54754041e-02	1.21736119e-02	3.27431326e-04
8e-05           	1.09099810e-02	4.88454505e-03	1.50889113e-01	1.48855033e-02	8.86977303e-03	3.36329457e-04
0.0001          	8.44758919e-03	4.29780143e-03	1.20612352e-01	1.10288019e-02	7.23289239e-03	3.65083765e-04
0.00012         	7.16791521e-03	3.93704595e-03	9.93869740e-02	9.04212811e-03	6.27110688e-03	3.90621605e-04
0.00014         	6.34529086e-03	3.68759549e-03	8.49363998e-02	7.91824811e-03	5.63255207e-03	4.11843397e-04
0.00016         	5.85294982e-03	3.55891048e-03	7.43310089e-02	7.20093818e-03	5.18707892e-03	4.33480582e-04
0.00018         	5.50579956e-03	3.45207485e-03	6.61153357e-02	6.71567678e-03	4.83679871e-03	4.57884239e-04
0.0002          	5.26000548e-03	3.40287056e-03	5.98115586e-02	6.35721165e-03	4.58057591e-03	4.82290851e-04
0.00022         	5.08440911e-03	3.34244397e-03	5.46175081e-02	6.11968590e-03	4.36123863e-03	5.06211407e-04
0.00024         	4.94633462e-03	3.32249147e-03	5.02609198e-02	5.92217968e-03	4.18161406e-03	5.33349750e-04
0.00026         	4.83526821e-03	3.26881541e-03	4.67736805e-02	5.77104918e-03	4.03557501e-03	5.61222945e-04
0.00028         	4.77100727e-03	3.25897640e-03	4.35763033e-02	5.67245892e-03	3.90518687e-03	5.87011630e-04
0.0003          	4.70389696e-03	3.21163770e-03	4.09444686e-02	5.57167348e-03	3.78584651e-03	6.03445988e-04
0.00032         	4.65516775e-03	3.21410904e-03	3.85688781e-02	5.51520165e-03	3.68263789e-03	6.04786440e-04
0.00034         	4.61041296e-03	3.17435556e-03	3.65412990e-02	5.44118807e-03	3.59247149e-03	6.02611029e-04
0.00036         	4.58234166e-03	3.18299609e-03	3.47319208e-02	5.41886146e-03	3.51240972e-03	5.94084233e-04
0.00038         	4.54816538e-03	3.14764864e-03	3.31073764e-02	5.37501982e-03	3.43599130e-03	5.87065010e-04
0.0004          	4.52989905e-03	3.16136820e-03	3.16116889e-02	5.37184793e-03	3.36717606e-03	5.75979627e-04
0.00042         	4.50571720e-03	3.13109038e-03	3.03058639e-02	5.34027133e-03	3.30065321e-03	5.63462624e-04
0.00044         	4.48686267e-03	3.13439868e-03	2.90671439e-02	5.35129091e-03	3.23905300e-03	5.50716894e-04
0.00046         	4.46033963e-03	3.11989804e-03	2.79922079e-02	5.33101153e-03	3.18120574e-03	5.37664644e-04
0.00048         	4.43484028e-03	3.11401375e-03	2.69540724e-02	5.33673092e-03	3.12298677e-03	5.25333475e-04
0.0005          	4.43207493e-03	3.11734105e-03	2.60804753e-02	5.34251546e-03	3.07626470e-03	5.15143562e-04
0.00052         	4.41924299e-03	3.09498580e-03	2.52108799e-02	5.33446325e-03	3.02565371e-03	5.07268799e-04
0.00054         	4.41067159e-03	3.10710893e-03	2.44212131e-02	5.35691954e-03	2.97800207e-03	4.95919828e-04
0.00056         	4.41337085e-03	3.09950689e-03	2.36992499e-02	5.34639610e-03	2.93435270e-03	4.82944140e-04
0.00058         	4.40158732e-03	3.09843692e-03	2.30067851e-02	5.34911442e-03	2.88993193e-03	4.71955790e-04
0.0006          	4.40838659e-03	3.10730962e-03	2.23883691e-02	5.39789674e-03	2.85052852e-03	4.60359564e-04
0.00062         	4.41214811e-03	3.10665447e-03	2.18171302e-02	5.37417680e-03	2.80777082e-03	4.49863859e-04
0.00064         	4.40636451e-03	3.11718161e-03	2.12533765e-02	5.39115642e-03	2.76857453e-03	4.41213518e-04
0.00066         	4.41743923e-03	3.11923642e-03	2.07672549e-02	5.43252928e-03	2.73454684e-03	4.31510131e-04
0.00068         	4.41628586e-03	3.12134111e-03	2.02733289e-02	5.42120570e-03	2.69447196e-03	4.23622719e-04
0.0007          	4.41661237e-03	3.13245101e-03	1.98372710e-02	5.43234008e-03	2.66233934e-03	4.17383333e-04
0.00072         	4.41481658e-03	3.13760131e-03	1.94107318e-02	5.48526667e-03	2.62739126e-03	4.09847715e-04
0.00074         	4.42816622e-03	3.14419685e-03	1.90020782e-02	5.47754044e-03	2.59303124e-03	4.03694636e-04
0.00076         	4.43237411e-03	3.15187434e-03	1.86238400e-02	5.49004084e-03	2.56164688e-03	4.00756961e-04
0.00078         	4.44382869e-03	3.16485154e-03	1.82896333e-02	5.52808443e-03	2.53221788e-03	3.93911472e-04
0.0008          	4.45234062e-03	3.16865088e-03	1.79173617e-02	5.55642097e-03	2.49699144e-03	3.86008744e-04
0.00082         	4.46941340e-03	3.17208428e-03	1.76006230e-02	5.54764821e-03	2.46952975e-03	3.80074866e-04
0.00084         	4.47667158e-03	3.19093583e-03	1.72974618e-02	5.58394263e-03	2.43947751e-03	3.74225195e-04
0.00086         	4.49042702e-03	3.19637640e-03	1.70038707e-02	5.62526113e-03	2.41468043e-03	3.67783588e-04
0.00088         	4.50727189e-03	3.20555964e-03	1.66957165e-02	5.63744309e-03	2.38271479e-03	3.62457011e-04
0.0009          	4.52004075e-03	3.21196562e-03	1.64702935e-02	5.63931487e-03	2.35803390e-03	3.58708719e-04
0.00092         	4.53362660e-03	3.22657343e-03	1.62110984e-02	5.68233773e-03	2.33340370e-03	3.54577720e-04
0.00094         	4.54137435e-03	3.23102447e-03	1.59669206e-02	5.73290819e-03	2.30670293e-03	3.49998445e-04
0.00096         	4.56220761e-03	3.23641134e-03	1.57274053e-02	5.72683108e-03	2.28223125e-03	3.45701198e-04
0.00098         	4.57002351e-03	3.24192290e-03	1.55209502e-02	5.74318714e-03	2.25613954e-03	3.41582804e-04
0.001           	4.58365698e-03	3.25423501e-03	1.53264242e-02	5.77427532e-03	2.23567618e-03	3.37499947e-04
0.00102         	4.59349486e-03	3.25992144e-03	1.51024331e-02	5.83001297e-03	2.21209697e-03	3.33349266e-04
0.00104         	4.61099078e-03	3.26129230e-03	1.49126295e-02	5.83106195e-03	2.18881710e-03	3.29196807e-04
0.00106         	4.62664275e-03	3.26089032e-03	1.47291592e-02	5.83358948e-03	2.16442285e-03	3.25665954e-04
0.00108         	4.64035620e-03	3.27191744e-03	1.45787985e-02	5.86687636e-03	2.14472542e-03	3.22269780e-04
0.0011          	4.65991068e-03	3.27749122e-03	1.43695117e-02	5.90695447e-03	2.12675664e-03	3.18259006e-04
0.00112         	4.66973674e-03	3.27831013e-03	1.42103675e-02	5.94313641e-03	2.10174980e-03	3.14045343e-04
0.00114         	4.69125413e-03	3.27831898e-03	1.40618876e-02	5.93584853e-03	2.08218124e-03	3.10385997e-04
0.00116         	4.70939612e-03	3.28353266e-03	1.39075690e-02	5.95391053e-03	2.06138841e-03	3.07486411e-04
0.00118         	4.72055914e-03	3.29661002e-03	1.37755814e-02	5.98781163e-03	2.04406327e-03	3.04577447e-04
0.0012          	4.73826136e-03	3.30562168e-03	1.36078433e-02	6.02711728e-03	2.02868177e-03	3.01497142e-04
0.00122         	4.75467844e-03	3.30577045e-03	1.34729811e-02	6.05075713e-03	2.01167941e-03	2.98392999e-04
0.00124         	4.77112653e-03	3.30821031e-03	1.33502098e-02	6.04941648e-03	1.99057957e-03	2.95701785e-04
0.00126         	4.78836535e-03	3.31569215e-03	1.32271128e-02	6.06551120e-03	1.97274445e-03	2.93121694e-04
0.00128         	4.80395118e-03	3.33325383e-03	1.31075266e-02	6.09662188e-03	1.95943571e-03	2.90490984e-04
0.0013          	4.81824670e-03	3.34515763e-03	1.29725214e-02	6.13619741e-03	1.94406315e-03	2.88005372e-04
0.00132         	4.83545276e-03	3.34759648e-03	1.28434849e-02	6.16324705e-03	1.92765731e-03	2.85229153e-04
0.00134         	4.85134779e-03	3.35123126e-03	1.27539919e-02	6.15996447e-03	1.90745745e-03	2.83117795e-04
0.00136         	4.86771068e-03	3.35726886e-03	1.26568969e-02	6.17438041e-03	1.88907502e-03	2.80499699e-04
0.00138         	4.88467636e-03	3.37783608e-03	1.25403005e-02	6.19027386e-03	1.87488785e-03	2.78071803e-04
0.0014          	4.89993310e-03	3.39282976e-03	1.24283723e-02	6.22840225e-03	1.86115789e-03	2.75921521e-04
0.00142         	4.91107480e-03	3.40237008e-03	1.23253555e-02	6.26431370e-03	1.84165570e-03	2.73349836e-04
0.00144         	4.92730219e-03	3.40305024e-03	1.22253532e-02	6.26146686e-03	1.82093558e-03	2.70678887e-04
0.00146         	4.94485755e-03	3.41124606e-03	1.21497407e-02	6.27016370e-03	1.80437293e-03	2.67955344e-04
0.00148         	4.95381480e-03	3.42567359e-03	1.20712519e-02	6.28084022e-03	1.78695794e-03	2.65605737e-04
0.0015          	4.96666039e-03	3.45120136e-03	1.19657710e-02	6.29791546e-03	1.77252214e-03	2.63198370e-04
0.00152         	4.98286478e-03	3.47393066e-03	1.18512500e-02	6.33025946e-03	1.75665169e-03	2.60787673e-04
0.00154         	4.98951029e-03	3.49060901e-03	1.17824194e-02	6.35806370e-03	1.73939871e-03	2.58481473e-04
0.00156         	4.99814190e-03	3.50720482e-03	1.17073477e-02	6.34915009e-03	1.72066949e-03	2.56432732e-04
0.00158         	5.01183974e-03	3.52676238e-03	1.16193745e-02	6.34574982e-03	1.70296774e-03	2.54319804e-04
0.0016          	5.01944678e-03	3.55304833e-03	1.15592136e-02	6.35427326e-03	1.68657712e-03	2.52332056e-04
0.00162         	5.02425029e-03	3.58939546e-03	1.14725699e-02	6.36592753e-03	1.67232651e-03	2.50378858e-04
0.00164         	5.03247387e-03	3.61831934e-03	1.13774365e-02	6.37876822e-03	1.65784696e-03	2.48383597e-04
0.00166         	5.04609634e-03	3.64221515e-03	1.12836408e-02	6.40509294e-03	1.64178057e-03	2.46708142e-04
0.00168         	5.05347012e-03	3.65920865e-03	1.12207370e-02	6.40588355e-03	1.62528408e-03	2.45038644e-04
0.0017          	5.05369774e-03	3.67996195e-03	1.11732761e-02	6.39412051e-03	1.60794478e-03	2.43218986e-04
0.00172         	5.06374918e-03	3.69866017e-03	1.11045782e-02	6.39054312e-03	1.59284630e-03	2.41655885e-04
0.00174         	5.07636714e-03	3.72904189e-03	1.10067478e-02	6.40020102e-03	1.58004993e-03	2.40215034e-04
0.00176         	5.08515733e-03	3.75965961e-03	1.09343175e-02	6.42194487e-03	1.56756070e-03	2.38744956e-04
0.00178         	5.08976391e-03	3.78537494e-03	1.08668307e-02	6.43914437e-03	1.55455271e-03	2.37444101e-04
0.0018          	5.10021134e-03	3.80543521e-03	1.07856398e-02	6.44828067e-03	1.53952436e-03	2.36227808e-04
0.00182         	5.11234949e-03	3.81935107e-03	1.07107118e-02	6.44653324e-03	1.52499971e-03	2.34695434e-04
0.00184         	5.11862669e-03	3.83613514e-03	1.06752339e-02	6.44463283e-03	1.51084698e-03	2.33566532e-04
0.00186         	5.12315156e-03	3.85225601e-03	1.06310831e-02	6.44514273e-03	1.49762036e-03	2.32249970e-04
0.00188         	5.13300230e-03	3.88106776e-03	1.05501120e-02	6.44767637e-03	1.48544308e-03	2.30985763e-04
0.0019          	5.15049341e-03	3.90884774e-03	1.04466227e-02	6.46612282e-03	1.47463282e-03	2.29979553e-04
0.00192         	5.16334222e-03	3.93115829e-03	1.03910592e-02	6.49537189e-03	1.46263507e-03	2.28811659e-04
0.00194         	5.16838583e-03	3.95178267e-03	1.03421831e-02	6.50898026e-03	1.44946725e-03	2.27809348e-04
0.00196         	5.17548879e-03	3.96664017e-03	1.02980944e-02	6.50802351e-03	1.43605792e-03	2.26936768e-04
0.00198         	5.19022078e-03	3.97910151e-03	1.02213055e-02	6.49886779e-03	1.42346434e-03	2.25868649e-04
0.002           	5.20174284e-03	3.99322358e-03	1.01809476e-02	6.51139800e-03	1.41145464e-03	2.25073320e-04
0.00202         	5.20683754e-03	4.01619245e-03	1.01327330e-02	6.51399394e-03	1.39962640e-03	2.24255628e-04
0.00204         	5.21753880e-03	4.04342347e-03	1.00666594e-02	6.52487465e-03	1.38979395e-03	2.23525970e-04
0.00206         	5.23130252e-03	4.06684793e-03	9.98558879e-03	6.54189210e-03	1.37899174e-03	2.22929217e-04
0.00208         	5.24402839e-03	4.08795072e-03	9.91549238e-03	6.55559144e-03	1.36773557e-03	2.22313840e-04
0.0021          	5.25345520e-03	4.10551469e-03	9.87850626e-03	6.57983869e-03	1.35660026e-03	2.21605756e-04
0.00212         	5.26333360e-03	4.11660679e-03	9.84476178e-03	6.57905156e-03	1.34718933e-03	2.21221170e-04
0.00214         	5.27234148e-03	4.12931720e-03	9.80326673e-03	6.56935416e-03	1.33635675e-03	2.20603083e-04
0.00216         	5.28084778e-03	4.14082296e-03	9.74243212e-03	6.57342671e-03	1.32455437e-03	2.20010020e-04
0.00218         	5.29298341e-03	4.16081516e-03	9.68149691e-03	6.57960376e-03	1.31473853e-03	2.19546911e-04
0.0022          	5.30428134e-03	4.18336570e-03	9.62625549e-03	6.59210284e-03	1.30620529e-03	2.19273520e-04
0.00222         	5.31680410e-03	4.20471791e-03	9.58121186e-03	6.60763082e-03	1.29884063e-03	2.18939587e-04
0.00224         	5.32775912e-03	4.22393304e-03	9.52475390e-03	6.62435571e-03	1.29026893e-03	2.18422455e-04
0.00226         	5.33883036e-03	4.24157766e-03	9.46011388e-03	6.64454082e-03	1.28078758e-03	2.18059893e-04
0.00228         	5.35177469e-03	4.25286670e-03	9.41097358e-03	6.65367099e-03	1.27090388e-03	2.17533117e-04
0.0023          	5.36252856e-03	4.26041000e-03	9.38339161e-03	6.64255523e-03	1.26148358e-03	2.16985388e-04
0.00232         	5.37250647e-03	4.26984204e-03	9.35554423e-03	6.65059970e-03	1.25328058e-03	2.16535325e-04
0.00234         	5.38195389e-03	4.28403448e-03	9.30542860e-03	6.65471949e-03	1.24532960e-03	2.16125291e-04
0.00236         	5.38975652e-03	4.30065208e-03	9.23993576e-03	6.65753966e-03	1.23751335e-03	2.15813289e-04
0.00238         	5.40042941e-03	4.31701680e-03	9.18956266e-03	6.66822545e-03	1.23124790e-03	2.16983609e-04
0.0024          	5.41460257e-03	4.33614789e-03	9.13521549e-03	6.68728065e-03	1.22620255e-03	2.16759284e-04
0.00242         	5.42684587e-03	4.35465371e-03	9.09722826e-03	6.70207754e-03	1.22014417e-03	2.16560752e-04
0.00244         	5.44222564e-03	4.37053175e-03	9.04955717e-03	6.73267823e-03	1.21293232e-03	2.16368901e-04
0.00246         	5.45283553e-03	4.37714895e-03	9.01558363e-03	6.73832681e-03	1.20569379e-03	2.16244981e-04
0.00248         	5.46223660e-03	4.38006809e-03	8.98180065e-03	6.73466396e-03	1.19922274e-03	2.16090007e-04
0.0025          	5.46939612e-03	4.38433050e-03	8.94771034e-03	6.73465473e-03	1.19282546e-03	2.15954924e-04
0.00252         	5.47622246e-03	4.39633993e-03	8.89858480e-03	6.72842263e-03	1.18738341e-03	2.15873259e-04
0.00254         	5.48587114e-03	4.41153684e-03	8.85036929e-03	6.73391002e-03	1.18189157e-03	2.15913429e-04
0.00256         	5.50000859e-03	4.42769467e-03	8.80295160e-03	6.75672501e-03	1.17831152e-03	2.15420674e-04
0.00258         	5.51046631e-03	4.44249687e-03	8.75435818e-03	6.77476390e-03	1.17393743e-03	2.15528115e-04
0.0026          	5.51775092e-03	4.45681983e-03	8.70569050e-03	6.78613650e-03	1.16969204e-03	2.15658014e-04
0.00262         	5.52893856e-03	4.47217103e-03	8.66163084e-03	6.80617192e-03	1.16491000e-03	2.15880015e-04
0.00264         	5.54093420e-03	4.47981545e-03	8.62633958e-03	6.82039287e-03	1.16037960e-03	2.16080803e-04
0.00266         	5.55279195e-03	4.48353130e-03	8.59721763e-03	6.82675551e-03	1.15629044e-03	2.16284167e-04
0.00268         	5.56544736e-03	4.48558826e-03	8.56507060e-03	6.82581167e-03	1.15336850e-03	2.16452020e-04
0.0027          	5.57148440e-03	4.48838213e-03	8.53435036e-03	6.82739358e-03	1.14972612e-03	2.16720518e-04
0.00272         	5.57320892e-03	4.50059827e-03	8.49066054e-03	6.82716119e-03	1.14914180e-03	2.16721128e-04
0.00274         	5.57618892e-03	4.51385261e-03	8.44260467e-03	6.83298539e-03	1.14701376e-03	2.17038108e-04
0.00276         	5.58776741e-03	4.52577702e-03	8.38579804e-03	6.83562035e-03	1.14456324e-03	2.17529647e-04
0.00278         	5.60274242e-03	4.53646808e-03	8.33258975e-03	6.85388572e-03	1.14267265e-03	2.18049901e-04
0.0028          	5.61632432e-03	4.54831366e-03	8.29469069e-03	6.87813484e-03	1.14117438e-03	2.18576969e-04
0.00282         	5.62793086e-03	4.56453413e-03	8.27043015e-03	6.90853185e-03	1.13962143e-03	2.18964565e-04
0.00284         	5.63601202e-03	4.57197409e-03	8.24053220e-03	6.92596200e-03	1.13724126e-03	2.19479965e-04
0.00286         	5.63702527e-03	4.57553152e-03	8.21573430e-03	6.92876053e-03	1.13419019e-03	2.20002358e-04
0.00288         	5.63858664e-03	4.57557386e-03	8.19725375e-03	6.91528219e-03	1.13190020e-03	2.20554123e-04
0.0029          	5.64882897e-03	4.57081963e-03	8.15696405e-03	6.91024122e-03	1.12956263e-03	2.21173843e-04
0.00292         	5.65946016e-03	4.57757226e-03	8.11028941e-03	6.91644279e-03	1.12785050e-03	2.21889615e-04
0.00294         	5.66845119e-03	4.58921313e-03	8.07317231e-03	6.92404071e-03	1.12713126e-03	2.22721434e-04
0.00296         	5.67366781e-03	4.59779573e-03	8.03631415e-03	6.93402328e-03	1.12778837e-03	2.23628584e-04
0.00298         	5.67969758e-03	4.60521685e-03	7.99839916e-03	6.93477037e-03	1.12896863e-03	2.24546457e-04
0.003           	5.68308913e-03	4.61743990e-03	7.96472618e-03	6.94610508e-03	1.12987046e-03	2.25482364e-04
0.00302         	5.68813932e-03	4.63144694e-03	7.93062680e-03	6.96582329e-03	1.13093158e-03	2.26446077e-04
0.00304         	5.69970327e-03	4.64254021e-03	7.88805015e-03	6.98915981e-03	1.13151337e-03	2.27333673e-04
0.00306         	5.71049421e-03	4.64960120e-03	7.85277517e-03	7.00724741e-03	1.13094117e-03	2.28188662e-04
0.00308         	5.71947437e-03	4.64912390e-03	7.83602667e-03	7.01237258e-03	1.13083684e-03	2.29094904e-04
0.0031          	5.72617014e-03	4.64556925e-03	7.82159077e-03	7.01082269e-03	1.13222082e-03	2.30037052e-04
0.00312         	5.72691345e-03	4.63525310e-03	7.80071197e-03	7.00165353e-03	1.13465023e-03	2.31060333e-04
0.00314         	5.72823938e-03	4.63860023e-03	7.76995665e-03	6.99605054e-03	1.13747786e-03	2.32184979e-04
0.00316         	5.73081568e-03	4.64941303e-03	7.73290607e-03	6.99093842e-03	1.14148003e-03	2.33387603e-04
0.00318         	5.73471401e-03	4.65734440e-03	7.68497977e-03	6.99169126e-03	1.14559798e-03	2.34617683e-04
0.0032          	5.74029945e-03	4.66395684e-03	7.64313488e-03	6.98778412e-03	1.14997084e-03	2.35946037e-04
0.00322         	5.74614917e-03	4.67291234e-03	7.60640444e-03	6.99989525e-03	1.15500130e-03	2.37252698e-04
0.00324         	5.75646803e-03	4.68256821e-03	7.56883916e-03	7.02192568e-03	1.16225156e-03	2.38643988e-04
0.00326         	5.76170050e-03	4.69040654e-03	7.54272702e-03	7.04469991e-03	1.16973194e-03	2.40128003e-04
0.00328         	5.76637916e-03	4.69521089e-03	7.52293565e-03	7.06071464e-03	1.17772655e-03	2.41692591e-04
0.0033          	5.77021870e-03	4.69673185e-03	7.49907984e-03	7.06762813e-03	1.18650544e-03	2.43309207e-04
0.00332         	5.77571985e-03	4.69597405e-03	7.47567853e-03	7.06270226e-03	1.19633592e-03	2.44956769e-04
0.00334         	5.78136907e-03	4.69094402e-03	7.44825216e-03	7.05724710e-03	1.20635676e-03	2.46706354e-04
0.00336         	5.78398360e-03	4.68397170e-03	7.41316780e-03	7.04227423e-03	1.21655975e-03	2.48445414e-04
0.00338         	5.78455908e-03	4.68767943e-03	7.38189563e-03	7.03798384e-03	1.22846782e-03	2.50306576e-04
0.0034          	5.78664080e-03	4.69409943e-03	7.34967610e-03	7.03120660e-03	1.24300761e-03	2.52319838e-04
0.00342         	5.78706109e-03	4.69925930e-03	7.32140126e-03	7.02973931e-03	1.25868739e-03	2.54503321e-04
0.00344         	5.78460780e-03	4.70452247e-03	7.30345910e-03	7.03040966e-03	1.27713659e-03	2.56952391e-04
0.00346         	5.78569995e-03	4.71013537e-03	7.27095797e-03	7.03609031e-03	1.29709941e-03	2.59509552e-04
0.00348         	5.79282975e-03	4.71598366e-03	7.23733165e-03	7.04764543e-03	1.31823403e-03	2.62215608e-04
0.0035          	5.79817324e-03	4.72171043e-03	7.20481185e-03	7.06000544e-03	1.33269577e-03	2.64427738e-04
0.00352         	5.80405785e-03	4.72471711e-03	7.18041635e-03	7.06783866e-03	1.34778870e-03	2.66049723e-04
0.00354         	5.80856486e-03	4.72508128e-03	7.15964542e-03	7.08080455e-03	1.36203957e-03	2.67758094e-04
0.00356         	5.81271923e-03	4.72745017e-03	7.14448904e-03	7.08344250e-03	1.37354005e-03	2.69395578e-04
0.00358         	5.81671650e-03	4.72402827e-03	7.12226632e-03	7.07742289e-03	1.38586355e-03	2.70734534e-04
0.0036          	5.81802267e-03	4.71460168e-03	7.09685018e-03	7.06500785e-03	1.39831759e-03	2.72081901e-04
0.00362         	5.81961334e-03	4.70768754e-03	7.06745644e-03	7.04455764e-03	1.41432197e-03	2.73144010e-04
0.00364         	5.81763859e-03	4.71062500e-03	7.03302870e-03	7.02913391e-03	1.43038570e-03	2.74277815e-04
0.00366         	5.81192117e-03	4.71482910e-03	7.00017077e-03	7.01698945e-03	1.44650758e-03	2.75761340e-04
0.00368         	5.80886123e-03	4.71819358e-03	6.97008182e-03	7.00442292e-03	1.45296441e-03	2.76892391e-04
0.0037          	5.81067617e-03	4.71843362e-03	6.94102218e-03	7.00977473e-03	1.45883480e-03	2.78084519e-04
0.00372         	5.81368519e-03	4.71980570e-03	6.91296334e-03	7.01553577e-03	1.46665091e-03	2.79170722e-04
0.00374         	5.81544145e-03	4.72429390e-03	6.89262827e-03	7.02415782e-03	1.47140441e-03	2.79114283e-04
0.00376         	5.81633261e-03	4.72938666e-03	6.86809690e-03	7.02875252e-03	1.47821464e-03	2.79032979e-04
0.00378         	5.81899007e-03	4.73129765e-03	6.84388963e-03	7.02615943e-03	1.48688565e-03	2.79059851e-04
0.0038          	5.82192879e-03	4.73517201e-03	6.82919376e-03	7.02894554e-03	1.49064173e-03	2.78498381e-04
0.00382         	5.82355747e-03	4.73745293e-03	6.80820867e-03	7.02975053e-03	1.48086484e-03	2.76698335e-04
0.00384         	5.82172635e-03	4.73154235e-03	6.78850322e-03	7.02241488e-03	1.47077574e-03	2.74793271e-04
0.00386         	5.81872923e-03	4.72151207e-03	6.76825810e-03	7.01178205e-03	1.46157254e-03	2.73035171e-04
0.00388         	5.81972517e-03	4.70637653e-03	6.74059791e-03	6.99395873e-03	1.45443730e-03	2.71466154e-04
0.0039          	5.81567724e-03	4.69800962e-03	6.71319195e-03	6.97382570e-03	1.44870276e-03	2.70216976e-04
0.00392         	5.80953724e-03	4.69551664e-03	6.68708643e-03	6.95298424e-03	1.44327068e-03	2.69306471e-04
0.00394         	5.80214656e-03	4.69964469e-03	6.66016499e-03	6.93318838e-03	1.43899026e-03	2.68471203e-04
0.00396         	5.79928675e-03	4.70152648e-03	6.62836634e-03	6.91839997e-03	1.43651137e-03	2.67664356e-04
0.00398         	5.79945777e-03	4.70226094e-03	6.59585953e-03	6.91494247e-03	1.41290163e-03	2.66283883e-04
0.004           	5.79956906e-03	4.70211508e-03	6.57014928e-03	6.91350068e-03	1.38696138e-03	2.64041269e-04
0.00402         	5.79690218e-03	4.69959930e-03	6.54298295e-03	6.91254175e-03	1.36013304e-03	2.61850523e-04
0.00404         	5.79120027e-03	4.69675172e-03	6.51837380e-03	6.91169935e-03	1.33220977e-03	2.59761145e-04
0.00406         	5.78706082e-03	4.69409508e-03	6.50481572e-03	6.90497877e-03	1.30370688e-03	2.57596387e-04
0.00408         	5.78567312e-03	4.69338150e-03	6.48076700e-03	6.89482468e-03	1.27569068e-03	2.55561053e-04
0.0041          	5.78277293e-03	4.68969097e-03	6.45941503e-03	6.88568430e-03	1.24853135e-03	2.53585280e-04
0.00412         	5.77718879e-03	4.68380742e-03	6.44250493e-03	6.87302404e-03	1.22082102e-03	2.51791127e-04
0.00414         	5.77347686e-03	4.67137569e-03	6.42633079e-03	6.85850964e-03	1.19269766e-03	2.50114986e-04
0.00416         	5.76944475e-03	4.65698990e-03	6.40253691e-03	6.84327397e-03	1.16435613e-03	2.48417808e-04
0.00418         	5.76151416e-03	4.64081515e-03	6.37824758e-03	6.81276632e-03	1.13657365e-03	2.46672297e-04
0.0042          	5.75372638e-03	4.62920669e-03	6.35210051e-03	6.78334190e-03	1.10974608e-03	2.44958552e-04
0.00422         	5.74355477e-03	4.62286014e-03	6.32673731e-03	6.75943812e-03	1.08356201e-03	2.43393311e-04
0.00424         	5.73236357e-03	4.61840701e-03	6.30358406e-03	6.73406699e-03	1.05803390e-03	2.41983808e-04
0.00426         	5.72461887e-03	4.61500328e-03	6.28149299e-03	6.71493166e-03	1.03282387e-03	2.40678687e-04
0.00428         	5.71892443e-03	4.60946702e-03	6.25545007e-03	6.69883741e-03	1.00502651e-03	2.39656969e-04
0.0043          	5.71119722e-03	4.60349607e-03	6.22834540e-03	6.68440427e-03	9.79654655e-04	2.39316446e-04
0.00432         	5.70428376e-03	4.59618952e-03	6.20464420e-03	6.66852753e-03	9.56568414e-04	2.39529218e-04
0.00434         	5.69692859e-03	4.58858945e-03	6.18314792e-03	6.65881098e-03	9.33267667e-04	2.38849152e-04
0.00436         	5.68912115e-03	4.58198486e-03	6.15929339e-03	6.64833038e-03	9.10348538e-04	2.38153659e-04
0.00438         	5.67879585e-03	4.57555517e-03	6.13674519e-03	6.63032425e-03	8.90043942e-04	2.37593705e-04
0.0044          	5.66970375e-03	4.56498972e-03	6.11135882e-03	6.60878073e-03	8.71321349e-04	2.37200892e-04
0.00442         	5.66356853e-03	4.55205400e-03	6.09057199e-03	6.59370905e-03	8.53968131e-04	2.36996692e-04
0.00444         	5.65776266e-03	4.53597486e-03	6.07346301e-03	6.57475636e-03	8.34074425e-04	2.36621613e-04
0.00446         	5.65046333e-03	4.52026476e-03	6.05442167e-03	6.55577106e-03	8.15350641e-04	2.35916263e-04
0.00448         	5.64074557e-03	4.50059037e-03	6.03002451e-03	6.53275178e-03	7.97776839e-04	2.35378999e-04
0.0045          	5.62818786e-03	4.48324456e-03	6.00069027e-03	6.49164926e-03	7.81159563e-04	2.35046049e-04
0.00452         	5.61455361e-03	4.46892337e-03	5.97291083e-03	6.45476123e-03	7.64472583e-04	2.35016717e-04
0.00454         	5.60087929e-03	4.45769340e-03	5.95009287e-03	6.42102071e-03	7.49173554e-04	2.35378429e-04
0.00456         	5.58842489e-03	4.45119938e-03	5.92761540e-03	6.39258792e-03	7.35485340e-04	2.36308214e-04
0.00458         	5.57497248e-03	4.44159511e-03	5.90247166e-03	6.36775342e-03	7.23486889e-04	2.37604067e-04
0.0046          	5.55820511e-03	4.42863947e-03	5.88045256e-03	6.33183025e-03	7.13645157e-04	2.39549902e-04
0.00462         	5.54278192e-03	4.41323837e-03	5.85643186e-03	6.29709366e-03	7.06541537e-04	2.42347380e-04
0.00464         	5.53291622e-03	4.39775890e-03	5.83127317e-03	6.26695088e-03	7.01740495e-04	2.45573751e-04
0.00466         	5.52337534e-03	4.38484516e-03	5.80636766e-03	6.24100816e-03	7.04095504e-04	2.49215376e-04
0.00468         	5.51381530e-03	4.37402996e-03	5.78645292e-03	6.21266652e-03	7.08807759e-04	2.53948435e-04
0.0047          	5.50317036e-03	4.36259296e-03	5.76457496e-03	6.18130431e-03	7.16154578e-04	2.59753593e-04
0.00472         	5.48865138e-03	4.35039499e-03	5.74319890e-03	6.14109241e-03	7.25566151e-04	2.65835083e-04
0.00474         	5.47562286e-03	4.33558305e-03	5.72247627e-03	6.10099053e-03	7.37311581e-04	2.72055910e-04
0.00476         	5.46573401e-03	4.32087740e-03	5.70048715e-03	6.06459342e-03	7.54778135e-04	2.78402920e-04
0.00478         	5.45492473e-03	4.30573853e-03	5.68008122e-03	6.03528964e-03	7.75807250e-04	2.85162954e-04
0.0048          	5.44287879e-03	4.28749143e-03	5.65257183e-03	6.00319767e-03	7.86545258e-04	2.90472295e-04
0.00482         	5.42874254e-03	4.26607741e-03	5.62533926e-03	5.96878049e-03	7.95874623e-04	2.93195160e-04
0.00484         	5.40971297e-03	4.24220441e-03	5.59961228e-03	5.91889579e-03	8.07065157e-04	2.96112417e-04
0.00486         	5.39159108e-03	4.22162435e-03	5.57291501e-03	5.87280225e-03	8.18568291e-04	2.99525215e-04
0.00488         	5.37600308e-03	4.20825045e-03	5.54511628e-03	5.83167459e-03	8.32028711e-04	3.03420062e-04
0.0049          	5.36210957e-03	4.19893901e-03	5.52004287e-03	5.79224924e-03	8.50025361e-04	3.07829197e-04
0.00492         	5.34499176e-03	4.18664861e-03	5.50100516e-03	5.75686296e-03	8.73895077e-04	3.12870527e-04
0.00494         	5.32768959e-03	4.17313168e-03	5.47663706e-03	5.72367045e-03	8.92319437e-04	3.18210732e-04
0.00496         	5.31061247e-03	4.15791445e-03	5.45199602e-03	5.69052500e-03	9.01805775e-04	3.18213942e-04
0.00498         	5.29396788e-03	4.14114623e-03	5.42595463e-03	5.66080673e-03	9.10005326e-04	3.18673468e-04
0.005           	5.28161328e-03	4.13138612e-03	5.39910332e-03	5.63133314e-03	9.17583670e-04	3.19085626e-04
0.00502         	5.26746635e-03	4.12097564e-03	5.37266674e-03	5.60699466e-03	9.28069867e-04	3.19862095e-04
0.00504         	5.25113176e-03	4.10721480e-03	5.35076727e-03	5.57687500e-03	9.39021636e-04	3.21239769e-04
0.00506         	5.23377267e-03	4.09321243e-03	5.32976257e-03	5.54029284e-03	9.52821698e-04	3.23235414e-04
0.00508         	5.21639876e-03	4.07888226e-03	5.30809237e-03	5.50470276e-03	9.69001206e-04	3.26062718e-04
0.0051          	5.20062947e-03	4.06328920e-03	5.28687043e-03	5.46759884e-03	9.87902934e-04	3.29892021e-04
0.00512         	5.18613379e-03	4.04969469e-03	5.26199380e-03	5.43540074e-03	1.01053429e-03	3.34748764e-04
0.00514         	5.17090481e-03	4.03416262e-03	5.23227407e-03	5.40423889e-03	1.03822715e-03	3.40705171e-04
0.00516         	5.15479034e-03	4.01857396e-03	5.20521817e-03	5.37169005e-03	1.07439793e-03	3.47921615e-04
0.00518         	5.13725962e-03	4.00021872e-03	5.17984593e-03	5.34052569e-03	1.08994417e-03	3.48657505e-04
0.0052          	5.11939835e-03	3.97944728e-03	5.15093812e-03	5.29296054e-03	1.09944678e-03	3.45076479e-04
0.00522         	5.09726172e-03	3.96454402e-03	5.12129554e-03	5.24851986e-03	1.10996212e-03	3.42559403e-04
0.00524         	5.07328113e-03	3.95189063e-03	5.09564702e-03	5.20352903e-03	1.12105196e-03	3.41058382e-04
0.00526         	5.04842900e-03	3.94172744e-03	5.07050837e-03	5.16150941e-03	1.13121965e-03	3.40608238e-04
0.00528         	5.02794968e-03	3.93093570e-03	5.04312724e-03	5.12296013e-03	1.14450862e-03	3.38747136e-04
0.0053          	5.00948444e-03	3.91768170e-03	5.01758091e-03	5.09165402e-03	1.15924475e-03	3.38162667e-04
0.00532         	4.98951218e-03	3.90376465e-03	4.99101952e-03	5.06556567e-03	1.17357016e-03	3.37851394e-04
0.00534         	4.97071387e-03	3.88907048e-03	4.96505277e-03	5.03147596e-03	1.18643751e-03	3.36938409e-04
0.00536         	4.95339344e-03	3.87629744e-03	4.93905299e-03	5.00006054e-03	1.20483138e-03	3.37866556e-04
0.00538         	4.93256907e-03	3.86334310e-03	4.91257148e-03	4.97037877e-03	1.22998680e-03	3.40741193e-04
0.0054          	4.91138990e-03	3.84795371e-03	4.88934107e-03	4.93704854e-03	1.26658889e-03	3.46890117e-04
0.00542         	4.88635045e-03	3.83124917e-03	4.86498403e-03	4.89838825e-03	1.30091968e-03	3.55808527e-04
0.00544         	4.86489414e-03	3.81567575e-03	4.84266402e-03	4.86135362e-03	1.30914018e-03	3.47267576e-04
0.00546         	4.84451641e-03	3.80193572e-03	4.81827025e-03	4.82541527e-03	1.31297089e-03	3.38414423e-04
0.00548         	4.82183342e-03	3.78501211e-03	4.79635400e-03	4.78883683e-03	1.31628960e-03	3.30118932e-04
0.0055          	4.79822092e-03	3.76700888e-03	4.76885052e-03	4.75367152e-03	1.32068019e-03	3.22656621e-04
0.00552         	4.77415887e-03	3.74875765e-03	4.74029838e-03	4.71950281e-03	1.32375720e-03	3.15542999e-04
0.00554         	4.75064838e-03	3.72696797e-03	4.70784005e-03	4.68830813e-03	1.32643944e-03	3.08957113e-04
0.00556         	4.72875923e-03	3.70366866e-03	4.67757902e-03	4.65524702e-03	1.33489052e-03	3.05460830e-04